ITEM: TIMESTEP
1750000
ITEM: NUMBER OF ATOMS
13500
ITEM: BOX BOUNDS pp pp pp
-29.2554549094 33.305204914
-29.2554549094 33.305204914
-29.2554549094 33.305204914
ITEM: ATOMS id type x y z ColorR ColorG ColorB
10458 1 -14.9353824365 -15.8159862841 -28.7901124558 0.9499999881 0.9499999881 0.9499999881
2611 1 -14.5410000369 -26.7510328314 -26.2073494172 0.400000006 1.0 0.400000006
1509 1 -19.1054883383 -16.1731450911 -19.2888536323 1.0 0.400000006 0.400000006
4837 1 -22.436280428 -13.8878667484 -25.6210309133 0.400000006 1.0 0.400000006
7671 1 -18.1615105422 -17.447818535 -13.6940538243 0.9499999881 0.9499999881 0.9499999881
3667 1 -15.5746898192 -13.7442274734 -26.6204875025 0.9499999881 0.9499999881 0.9499999881
3832 1 -18.1865973668 -25.8881962111 -28.6657687652 0.400000006 1.0 0.400000006
11552 1 -19.970452021 -20.4742530146 -19.5267718216 0.400000006 1.0 0.400000006
4173 1 -21.9691399811 -16.4009284535 -26.0751649991 1.0 0.400000006 0.400000006
3285 1 -15.4171620778 -20.1138410533 -26.2853125115 0.400000006 1.0 0.400000006
4938 1 -19.7190832899 -14.9824280527 -24.9891995294 1.0 0.400000006 0.400000006
9766 1 -17.0405486395 -13.8559608119 -20.7358191333 0.9499999881 0.9499999881 0.9499999881
8396 1 -20.1875375106 -25.0760274692 -17.6475121611 0.400000006 1.0 0.400000006
12191 1 -17.0911602133 -15.5712489829 -25.1277463667 0.400000006 1.0 0.400000006
5430 1 -21.3106264758 -15.0441754239 -20.1550685282 0.400000006 1.0 0.400000006
1161 1 -17.6447594921 -15.1543447458 -28.0193063198 0.400000006 1.0 0.400000006
4420 1 -19.2105276862 -22.4644327249 -21.5780732965 0.400000006 1.0 0.400000006
3308 1 -22.9034834355 -19.7570576104 -19.2318608712 1.0 0.400000006 0.400000006
10682 1 -23.7669706867 -22.5492649796 -15.393764391 1.0 0.400000006 0.400000006
10157 1 -20.397115721 -15.6875492495 -14.4691803995 0.400000006 1.0 0.400000006
5651 1 -23.6062085591 -24.8253281371 -27.6858267226 0.400000006 1.0 0.400000006
336 1 -24.0373390902 -22.0499057929 -18.10914727 1.0 0.400000006 0.400000006
6138 1 -24.8155373938 -15.4851029543 -27.0892795509 0.400000006 1.0 0.400000006
12944 1 -22.9938210283 -20.8516189146 -26.9668108032 0.400000006 1.0 0.400000006
10667 1 -16.1154641627 -21.9763344569 -14.7292450623 0.400000006 1.0 0.400000006
10087 1 -18.4040582204 -19.1293239497 -28.5363826854 0.400000006 1.0 0.400000006
1254 1 -24.1840813739 -28.9083746247 -28.450067743 0.400000006 1.0 0.400000006
5846 1 -22.338623238 -26.6981190253 -19.1567255187 0.400000006 1.0 0.400000006
10956 1 -20.8097032726 -25.2846610137 -28.0503426631 0.400000006 1.0 0.400000006
11510 1 -22.4374690805 -21.5455417534 -24.1752478087 0.400000006 1.0 0.400000006
8073 1 -15.585575374 -23.2081163125 -19.5115070206 0.400000006 1.0 0.400000006
1454 1 -16.1600073525 -27.7157244619 -17.0269104157 0.400000006 1.0 0.400000006
11717 1 -14.3849737513 -16.594303453 -25.613604963 0.400000006 1.0 0.400000006
1971 1 -22.0743670109 -27.4350585738 -26.4819594335 0.400000006 1.0 0.400000006
8613 1 -13.7108200811 -18.3155348867 -27.6771307909 0.9499999881 0.9499999881 0.9499999881
8014 1 -19.7915910946 -26.0284071619 -25.1107736597 0.400000006 1.0 0.400000006
7262 1 -22.4611795706 -17.5777570254 -15.9717623271 0.400000006 1.0 0.400000006
2864 1 -14.2193756848 -26.4877525506 -15.3591057854 0.400000006 1.0 0.400000006
3618 1 -16.3284832094 -27.4005813941 -20.0240039458 0.400000006 1.0 0.400000006
7202 1 -22.412006892 -24.8918113503 -14.4410906632 0.400000006 1.0 0.400000006
3493 1 -22.1508786979 -21.7785802112 -21.3680571615 0.400000006 1.0 0.400000006
13212 1 -20.1693323586 -21.0816544608 -27.4705554922 0.400000006 1.0 0.400000006
4230 1 -23.3130743315 -14.213995468 -18.1780265564 0.400000006 1.0 0.400000006
2627 1 -20.464430991 -24.8506151558 -20.4995900818 0.400000006 1.0 0.400000006
9708 1 -24.1215207141 -28.0437425135 -20.4240793654 0.400000006 1.0 0.400000006
5329 1 -20.0640427681 -18.7442630885 -14.9911239844 1.0 0.400000006 0.400000006
4610 1 -15.9181478416 -29.0838829254 -25.0293822412 0.400000006 1.0 0.400000006
521 1 -17.170299448 -21.7662557613 -27.7343675386 0.400000006 1.0 0.400000006
6482 1 -20.7133598564 -18.2484072987 -17.7752610285 1.0 0.400000006 0.400000006
8070 1 -17.9250938088 -18.8298460711 -18.3604534405 0.400000006 1.0 0.400000006
570 1 -20.2342703235 -14.3766531836 -27.711939542 1.0 0.400000006 0.400000006
3642 1 -20.3836026185 -19.3456587114 -22.5973115664 0.400000006 1.0 0.400000006
6119 1 -19.4115350862 -26.4457055311 -22.4516077896 0.400000006 1.0 0.400000006
1942 1 -13.7574277727 -21.8258135094 -17.7237110448 0.400000006 1.0 0.400000006
5897 1 -20.7898089827 -19.4030268364 -25.5167548055 0.9499999881 0.9499999881 0.9499999881
1445 1 -24.623745179 -26.7019602498 -15.9513049913 0.400000006 1.0 0.400000006
11127 1 -23.1005182336 -25.4002042963 -24.9742162514 0.400000006 1.0 0.400000006
5495 1 -18.6717552838 -28.3789112485 -24.7194317082 0.400000006 1.0 0.400000006
11538 1 -16.63384179 -28.2125812222 -27.6098468012 0.400000006 1.0 0.400000006
4364 1 -24.929422819 -21.4035290556 -21.0002630424 1.0 0.400000006 0.400000006
9917 1 -25.1391386628 -26.2390301353 -18.7350041108 0.400000006 1.0 0.400000006
1107 1 -18.0351380094 -18.1643257719 -21.1429013468 0.400000006 1.0 0.400000006
11827 1 -16.9467076498 -22.225701247 -24.8600555594 0.400000006 1.0 0.400000006
902 1 -16.0477109681 -18.176274858 -24.0269915571 0.400000006 1.0 0.400000006
5376 1 -21.817430381 -27.1088923177 -16.2425248628 0.400000006 1.0 0.400000006
7617 1 -16.7897429543 -26.8701107913 -22.9898797067 0.400000006 1.0 0.400000006
387 1 -16.5086579097 -21.7220253748 -17.5168855034 0.400000006 1.0 0.400000006
1524 1 -23.7863144427 -28.6364691058 -17.5989650891 0.400000006 1.0 0.400000006
5308 1 -21.0349216479 -24.0979791378 -23.4120578074 0.400000006 1.0 0.400000006
6091 1 -23.5465006654 -16.590987738 -21.442629468 0.400000006 1.0 0.400000006
3348 1 -22.7764852961 -14.9010366342 -15.2772138817 0.400000006 1.0 0.400000006
11796 1 -18.9381385733 -27.289536223 -16.7273074158 0.400000006 1.0 0.400000006
1656 1 -20.9994497538 -17.801286263 -20.397491085 1.0 0.400000006 0.400000006
4473 1 -18.5819181762 -14.1142112156 -16.0714840189 0.400000006 1.0 0.400000006
7928 1 -19.3509763675 -20.8494292915 -16.8955955907 0.400000006 1.0 0.400000006
7048 1 -18.1384256588 -23.4423371668 -16.2134967167 0.400000006 1.0 0.400000006
4961 1 -24.6382342278 -19.0467438787 -17.2665177428 0.400000006 1.0 0.400000006
13461 1 -17.5096284669 -24.9576063962 -20.8536208558 0.400000006 1.0 0.400000006
1110 1 -13.9340365153 -22.4563623998 -25.3163041954 0.400000006 1.0 0.400000006
6296 1 -19.3646145913 -17.0015107878 -26.8166401953 0.400000006 1.0 0.400000006
2578 1 -14.1307272298 -21.1749949653 -20.3880444253 0.400000006 1.0 0.400000006
1488 1 -17.1091776833 -20.903043777 -20.0445864029 0.400000006 1.0 0.400000006
9305 1 -17.6769782319 -20.3737805949 -22.7259362829 0.400000006 1.0 0.400000006
9668 1 -18.331675537 -16.773977668 -16.2980161681 1.0 0.400000006 0.400000006
8119 1 -14.8173304714 -19.8769238346 -16.0472730435 0.400000006 1.0 0.400000006
1215 1 -24.2362131717 -23.0134025148 -25.5985090758 0.400000006 1.0 0.400000006
12611 1 -21.6358167855 -17.0920986232 -23.2001711087 1.0 0.400000006 0.400000006
12883 1 -19.2483768853 -26.9784095495 -19.5417863799 0.400000006 1.0 0.400000006
4177 1 -23.9338324786 -23.6295499413 -22.8734543188 0.400000006 1.0 0.400000006
12851 1 -14.2489668769 -27.4771556418 -23.2800860955 0.400000006 1.0 0.400000006
10821 1 -24.1882979624 -18.1531274138 -27.7497887412 1.0 0.400000006 0.400000006
12303 1 -18.1258509661 -24.2971284862 -23.7265377322 0.400000006 1.0 0.400000006
11615 1 -18.8247786577 -17.374247199 -23.9658948167 0.9499999881 0.9499999881 0.9499999881
11052 1 -19.7327215137 -25.4971357826 -14.7152940352 0.400000006 1.0 0.400000006
9367 1 -23.2422494085 -18.8026947448 -24.7897436338 1.0 0.400000006 0.400000006
753 1 -20.8262818474 -23.0659597252 -15.6873615675 0.400000006 1.0 0.400000006
8107 1 -14.7799191968 -25.439623768 -21.4973700453 0.400000006 1.0 0.400000006
3507 1 -16.0550305653 -24.1905626583 -27.1076786409 0.400000006 1.0 0.400000006
10819 1 -22.0810610015 -20.6721323816 -16.7453248858 1.0 0.400000006 0.400000006
4497 1 -14.1983553031 -15.396704742 -17.9872791046 0.9499999881 0.9499999881 0.9499999881
7964 1 -16.2084918639 -22.7964421466 -22.122538719 0.400000006 1.0 0.400000006
7320 1 -18.1387384621 -19.8379485435 -25.3967134115 0.400000006 1.0 0.400000006
9521 1 -17.2455599218 -25.1974014053 -18.0866879931 0.400000006 1.0 0.400000006
9922 1 -15.5472256895 -17.4002098728 -16.8177075692 0.400000006 1.0 0.400000006
4056 1 -15.5155699957 -18.7809236351 -21.5727556404 0.400000006 1.0 0.400000006
2736 1 -24.8576344618 -22.3369966608 -28.5050022584 0.400000006 1.0 0.400000006
10008 1 -17.213341182 -26.2826411713 -25.7643135925 0.400000006 1.0 0.400000006
5427 1 -21.2664586499 -18.7187383393 -28.173868686 0.400000006 1.0 0.400000006
8271 1 -13.7175766323 -16.8159558708 -22.8857787688 0.400000006 1.0 0.400000006
1865 1 -23.1344323673 -19.3459715147 -22.1540692915 1.0 0.400000006 0.400000006
9389 1 -21.5337803494 -23.3586747964 -26.1592089895 0.400000006 1.0 0.400000006
279 1 -21.0021398622 -28.6497951519 -21.031418251 0.400000006 1.0 0.400000006
4483 1 -18.8985376756 -23.7141757458 -26.7505573704 0.400000006 1.0 0.400000006
9117 1 -15.3631722283 -23.880781039 -16.581791321 0.400000006 1.0 0.400000006
4828 1 -25.0622516119 -16.3110287853 -16.697841345 0.400000006 1.0 0.400000006
261 1 -23.8755947603 -19.7646274502 -14.5143491959 0.400000006 1.0 0.400000006
10292 1 -22.496776586 -26.1850152616 -22.1852870608 0.400000006 1.0 0.400000006
12183 1 -14.2736157769 -14.1635715762 -21.1203795092 0.9499999881 0.9499999881 0.9499999881
6857 1 -20.9851859234 -15.5472882502 -17.2456850431 0.400000006 1.0 0.400000006
10824 1 -24.6779602468 -27.6130186267 -23.4077849144 0.400000006 1.0 0.400000006
70 1 -19.586830055 -27.9918797265 -27.3655974732 0.400000006 1.0 0.400000006
11579 1 -13.7065659562 -28.1109576864 -20.604754551 0.400000006 1.0 0.400000006
5008 1 -15.3624215004 -24.7102478034 -24.5953238713 0.400000006 1.0 0.400000006
9845 1 -16.9921892495 -14.6821368855 -17.9877170292 0.9499999881 0.9499999881 0.9499999881
12047 1 -14.683888584 -20.6365353662 -23.2551181362 0.400000006 1.0 0.400000006
8753 1 -14.8139521957 -14.2418349617 -24.0239073166 0.400000006 1.0 0.400000006
12245 1 -14.6024971655 -22.1923564153 -28.6200825921 0.9499999881 0.9499999881 0.9499999881
10494 1 -19.7371007599 -21.7359138412 -24.3728331407 0.400000006 1.0 0.400000006
3850 1 -18.6138866734 -23.1195867228 -18.8623150536 0.400000006 1.0 0.400000006
7555 1 -21.2636434202 -22.6574323604 -18.48651317 0.400000006 1.0 0.400000006
2934 1 -16.9270636026 -25.9701319073 -14.9868698595 0.400000006 1.0 0.400000006
11710 1 -14.5383099286 -25.8524678183 -18.3516323874 0.400000006 1.0 0.400000006
12889 1 -24.1532202004 -15.7401627644 -24.4672809688 0.400000006 1.0 0.400000006
5396 1 -15.5279570063 -17.8535244139 -13.8211145244 0.9499999881 0.9499999881 0.9499999881
4155 1 -16.0446454958 -15.247184765 -14.9961288372 0.9499999881 0.9499999881 0.9499999881
4169 1 -17.3675532084 -19.3029923414 -15.5690593598 0.400000006 1.0 0.400000006
8158 1 -18.9059198335 -21.5970917371 -14.1651355927 0.400000006 1.0 0.400000006
4921 1 -16.575722937 -17.535716262 -27.2858013516 0.400000006 1.0 0.400000006
396 1 -21.4215465256 -28.176815293 -23.8672429122 0.400000006 1.0 0.400000006
5151 1 -16.259416241 -16.0482114534 -22.3346193558 0.9499999881 0.9499999881 0.9499999881
10900 1 -15.153218654 -19.3890758093 -18.7681612605 0.400000006 1.0 0.400000006
12060 1 -19.0480576526 -15.3734947372 -22.2180062858 0.9499999881 0.9499999881 0.9499999881
4863 1 -15.688925584 -28.300259987 -14.0083585792 0.400000006 1.0 0.400000006
5889 1 -22.8696381186 -24.717986557 -17.3026778042 0.400000006 1.0 0.400000006
13429 1 -21.8355104117 -14.1518101722 -22.7517738355 0.400000006 1.0 0.400000006
4354 1 -24.0088552218 -13.7815136267 -20.7874316777 0.400000006 1.0 0.400000006
6765 1 -23.1899299287 -24.1969313334 -20.0634171615 0.400000006 1.0 0.400000006
4372 1 -16.1344200426 -16.786302118 -19.4477577082 0.400000006 1.0 0.400000006
12607 1 -28.5751077338 -28.0501174448 -13.6726580786 0.9499999881 0.9499999881 0.9499999881
7560 1 -20.7736057718 -28.9331711679 -18.2874451505 0.400000006 1.0 0.400000006
3181 1 -22.1379912019 -22.639852815 -29.0133101219 0.400000006 1.0 0.400000006
7467 1 -21.4745979652 -29.2526287191 -28.8971937836 0.400000006 1.0 0.400000006
211 1 -23.042524502 -17.0194656972 -18.5570190336 0.400000006 1.0 0.400000006
5042 1 -23.2421993599 -29.0091354491 -15.0223417536 0.400000006 1.0 0.400000006
8918 1 -24.6966158356 -16.9166159724 -13.8973759687 0.400000006 1.0 0.400000006
10589 1 -28.8480167257 -29.1883704882 -21.4747230865 0.400000006 1.0 0.400000006
13443 1 -26.8327370531 -28.9828768633 -24.9491857314 0.400000006 1.0 0.400000006
7748 1 -27.1680121412 -15.683607928 -14.6681858584 0.400000006 1.0 0.400000006
7883 1 -25.2212245046 -24.6612690628 -14.0048551823 1.0 0.400000006 0.400000006
1573 1 -27.7035063651 -14.6038735001 -19.9907842355 0.400000006 1.0 0.400000006
8334 1 -27.1740492449 -13.9360384564 -27.9590291241 0.400000006 1.0 0.400000006
12780 1 -29.1839962469 -19.2040839382 -19.3173812931 0.400000006 1.0 0.400000006
5342 1 -25.4236332634 -18.2655489195 -23.1386176755 0.400000006 1.0 0.400000006
4849 1 -28.687960908 -22.5475758418 -20.4526695869 0.400000006 1.0 0.400000006
1183 1 -27.9239138257 -26.4117913974 -25.7376001908 0.400000006 1.0 0.400000006
3565 1 -26.1082783563 -28.4644879751 -14.4267017114 0.400000006 1.0 0.400000006
2884 1 -27.9527480338 -25.7413788546 -18.1411783278 1.0 0.400000006 0.400000006
9528 1 -25.1224474788 -20.9966345241 -23.725661883 1.0 0.400000006 0.400000006
11088 1 -28.2629800898 -25.2977924962 -20.9709220929 1.0 0.400000006 0.400000006
9580 1 -24.9731089277 -26.907916198 -26.4297087704 0.400000006 1.0 0.400000006
7209 1 -28.0299979366 -20.5482622752 -13.9735122917 0.400000006 1.0 0.400000006
7934 1 -28.545923186 -16.1403633053 -26.6837050493 0.400000006 1.0 0.400000006
9196 1 -25.0832970179 -18.6930259081 -20.2155646862 0.400000006 1.0 0.400000006
13155 1 -26.0173714615 -15.2053942443 -22.3645859118 0.400000006 1.0 0.400000006
5887 1 -27.3556816086 -20.1414303043 -21.7478003666 0.400000006 1.0 0.400000006
1015 1 -26.5028922303 -24.2697832218 -26.937401037 0.400000006 1.0 0.400000006
9183 1 -28.2638934754 -22.6311568833 -17.3747476843 0.400000006 1.0 0.400000006
9909 1 -26.1163862178 -17.6131037982 -25.8133423816 0.400000006 1.0 0.400000006
2822 1 -27.1283299147 -28.3548816991 -27.8245549858 0.400000006 1.0 0.400000006
5338 1 -28.5374649848 -14.0529643297 -23.3577426426 0.400000006 1.0 0.400000006
588 1 -28.8802498545 -17.0545622273 -16.1220955927 0.400000006 1.0 0.400000006
7274 1 -27.6871154722 -17.4358068883 -20.9142421351 0.400000006 1.0 0.400000006
10257 1 -27.4543460252 -22.5512669207 -24.9746666882 1.0 0.400000006 0.400000006
1539 1 -27.6995712996 -23.3448676588 -14.918553619 0.400000006 1.0 0.400000006
4544 1 -27.931627555 -17.0489943286 -23.6830330494 0.400000006 1.0 0.400000006
7927 1 -26.1184444635 -21.3611129282 -16.0349485935 0.400000006 1.0 0.400000006
11605 1 -27.6278455031 -21.8735472929 -27.9260784245 1.0 0.400000006 0.400000006
1317 1 -25.8562214579 -25.1105859777 -24.397513321 0.400000006 1.0 0.400000006
11215 1 -26.589907852 -16.8809563963 -28.7183960434 0.400000006 1.0 0.400000006
12555 1 -25.3957312091 -25.6671693999 -21.3556075902 0.400000006 1.0 0.400000006
2663 1 -28.4532458245 -25.7694623348 -28.5098882459 0.400000006 1.0 0.400000006
431 1 -27.1484369108 -17.6326852847 -18.2409625802 0.400000006 1.0 0.400000006
10079 1 -28.7472684136 -24.4260222136 -23.6104126355 1.0 0.400000006 0.400000006
9007 1 -25.3905762107 -15.8592782607 -19.6378795534 0.400000006 1.0 0.400000006
13141 1 -26.9353427913 -27.649078591 -20.0615403417 0.400000006 1.0 0.400000006
4304 1 -26.4152697701 -23.0961077071 -19.4191674867 1.0 0.400000006 0.400000006
2721 1 -25.7231611905 -24.1564670987 -17.0056397913 1.0 0.400000006 0.400000006
8944 1 -28.5783796563 -19.9548118561 -16.9179297463 0.400000006 1.0 0.400000006
2264 1 -27.4848943954 -15.0332273084 -17.4464422005 0.400000006 1.0 0.400000006
10643 1 -25.6406374241 -20.5182957191 -26.4169776761 1.0 0.400000006 0.400000006
10089 1 -26.415920401 -14.4309558363 -25.0109768951 0.400000006 1.0 0.400000006
11809 1 -27.6177982611 -19.5812621563 -24.5018770137 0.400000006 1.0 0.400000006
9122 1 -26.615313736 -23.1906368641 -22.3563279047 1.0 0.400000006 0.400000006
1350 1 -28.1737247964 -18.9163674637 -27.4218520185 0.400000006 1.0 0.400000006
11423 1 -26.3874302765 -28.2965313717 -17.307307293 0.400000006 1.0 0.400000006
4986 1 -26.5563315459 -18.4816334386 -15.4005835029 0.400000006 1.0 0.400000006
9927 1 -27.5401729944 -27.2977129012 -22.9908806773 0.400000006 1.0 0.400000006
3318 1 -27.2951479141 -26.1619679146 -15.2084597166 1.0 0.400000006 0.400000006
12369 1 -26.6322426505 -20.4654945222 -18.7463275903 0.400000006 1.0 0.400000006
1995 1 -18.5655272834 -27.8115173443 -13.6839189974 0.400000006 1.0 0.400000006
3567 1 -15.1499654997 -26.3009714446 -29.036774123 0.400000006 1.0 0.400000006
122 1 -22.7738577484 -16.127726052 -29.0480375442 1.0 0.400000006 0.400000006
10992 1 -25.6507785071 -26.2188292983 -29.210495003 0.400000006 1.0 0.400000006
7232 1 -15.2702696485 -13.8616538319 -6.1608745323 0.9499999881 0.9499999881 0.9499999881
10279 1 -23.9070252358 -22.4142590757 -4.3158981134 0.9499999881 0.9499999881 0.9499999881
10183 1 -20.1770898804 -14.0810540659 -8.1586240824 0.400000006 1.0 0.400000006
4233 1 -24.5776442288 -13.7950267292 1.7507967516 0.9499999881 0.9499999881 0.9499999881
2785 1 -25.1531710188 -14.1491200638 -13.3436515686 0.400000006 1.0 0.400000006
1832 1 -24.4545811549 -26.6340631657 -2.1050669559 0.400000006 1.0 0.400000006
10407 1 -14.9437030042 -18.0976986692 -11.0920934215 0.9499999881 0.9499999881 0.9499999881
9144 1 -24.6142422148 -25.9695938856 -4.9762884385 0.400000006 1.0 0.400000006
11978 1 -13.970697062 -21.9459299763 1.3980171909 0.400000006 1.0 0.400000006
1606 1 -19.2929826358 -25.6127228577 -1.3329432924 0.400000006 1.0 0.400000006
9391 1 -24.01873355 -16.8268414256 -4.8890163181 0.9499999881 0.9499999881 0.9499999881
5780 1 -16.0114257854 -26.8592252365 -9.320062732 0.400000006 1.0 0.400000006
5305 1 -14.7899289024 -24.3968251537 0.0624096643 1.0 0.400000006 0.400000006
5187 1 -22.9069868325 -29.2330063929 -1.1822346629 0.400000006 1.0 0.400000006
2243 1 -15.5247664127 -15.4749681274 -12.0082942846 0.9499999881 0.9499999881 0.9499999881
12039 1 -21.7808949557 -15.9686342941 -6.7919239079 1.0 0.400000006 0.400000006
5690 1 -14.1698902029 -20.3608305383 -13.0372294568 0.400000006 1.0 0.400000006
10982 1 -20.1957329571 -13.8725393867 -11.2264737188 0.9499999881 0.9499999881 0.9499999881
10572 1 -27.6253243085 -23.1002742471 -9.2368570545 0.9499999881 0.9499999881 0.9499999881
11080 1 -18.2586046863 -21.7455481829 -11.0633780787 0.400000006 1.0 0.400000006
2135 1 -19.3906398258 -25.759615287 -11.6781616828 0.400000006 1.0 0.400000006
4907 1 -15.3064922705 -19.3314574416 0.2952604402 0.400000006 1.0 0.400000006
12254 1 -16.0086105557 -27.9407926917 -3.7068075294 0.400000006 1.0 0.400000006
6387 1 -17.5799466485 -24.1897681379 0.516349812 1.0 0.400000006 0.400000006
7805 1 -18.7419483441 -21.8204332927 -0.5443661753 1.0 0.400000006 0.400000006
12665 1 -21.0512499801 -18.684392537 -7.3310091136 0.9499999881 0.9499999881 0.9499999881
10307 1 -24.8561204939 -25.4266361751 -7.8324328021 0.9499999881 0.9499999881 0.9499999881
7398 1 -19.1872551207 -26.0821092323 1.7497957811 1.0 0.400000006 0.400000006
5746 1 -23.7209510653 -27.6315741184 -10.3315434801 0.400000006 1.0 0.400000006
4066 1 -23.5298845541 -17.7584947717 -7.9657495682 0.9499999881 0.9499999881 0.9499999881
2226 1 -21.0814042182 -27.9340549086 -10.5779073584 0.400000006 1.0 0.400000006
13257 1 -20.7592168201 -28.4197758715 -7.3743010902 0.400000006 1.0 0.400000006
2952 1 -17.3712442873 -15.284158115 -7.5201299883 0.400000006 1.0 0.400000006
2694 1 -18.6103207158 -26.9952008306 -5.7904528655 0.400000006 1.0 0.400000006
7110 1 -16.7073505653 -25.4484135407 -4.5340471342 0.9499999881 0.9499999881 0.9499999881
5383 1 -24.1648001786 -15.9887788266 -2.2764206032 0.9499999881 0.9499999881 0.9499999881
10604 1 -20.8006945375 -22.0544101604 -7.8862975302 0.9499999881 0.9499999881 0.9499999881
11024 1 -13.9581223694 -25.618059282 -7.9476069768 0.400000006 1.0 0.400000006
10874 1 -15.1188102911 -15.8607797166 -9.0879001234 0.9499999881 0.9499999881 0.9499999881
654 1 -17.8186155657 -28.8340075172 -8.0665347912 0.400000006 1.0 0.400000006
6018 1 -17.036044272 -15.6017785849 -4.7272344518 0.9499999881 0.9499999881 0.9499999881
3177 1 -22.146061527 -25.362818046 -11.4331741389 0.400000006 1.0 0.400000006
6607 1 -15.0827127903 -16.6683127136 -6.574900979 0.9499999881 0.9499999881 0.9499999881
9656 1 -18.2324543305 -28.2709878543 -10.6769408829 0.400000006 1.0 0.400000006
6036 1 -15.1370154431 -22.8964766416 -9.061311843 0.400000006 1.0 0.400000006
2653 1 -21.6167983449 -18.6993445347 -10.222312568 0.400000006 1.0 0.400000006
418 1 -21.6063507147 -26.7770267855 -5.2882158884 0.400000006 1.0 0.400000006
8260 1 -17.9117683882 -14.5143491959 -13.3119958747 0.9499999881 0.9499999881 0.9499999881
5307 1 -24.2320779121 -19.5551118005 -4.268352012 0.9499999881 0.9499999881 0.9499999881
1155 1 -16.1439292629 -27.5202161439 -6.5246647692 0.400000006 1.0 0.400000006
11766 1 -14.1751452983 -18.8289702219 -8.1162705157 0.400000006 1.0 0.400000006
4194 1 -22.0968262878 -18.1994848627 -13.1006659658 0.400000006 1.0 0.400000006
2710 1 -21.586081061 -17.953371227 -4.2228078516 0.9499999881 0.9499999881 0.9499999881
6477 1 -15.7184542155 -17.1146204608 -2.8255155145 0.9499999881 0.9499999881 0.9499999881
12030 1 -18.9814931105 -20.6405392484 -3.3823679475 0.9499999881 0.9499999881 0.9499999881
11768 1 -20.3642713746 -23.7366350227 0.9717914155 1.0 0.400000006 0.400000006
2054 1 -17.4679005068 -24.5388128272 -10.1602523935 0.400000006 1.0 0.400000006
1764 1 -14.5579539758 -19.7039436102 -2.1670020092 0.9499999881 0.9499999881 0.9499999881
5575 1 -22.9968865006 -23.3072624462 1.3905724724 0.9499999881 0.9499999881 0.9499999881
9868 1 -21.8179934269 -15.1903171252 -4.1056942964 0.9499999881 0.9499999881 0.9499999881
4207 1 -22.6101990623 -16.1840306459 0.9237448288 0.9499999881 0.9499999881 0.9499999881
6894 1 -14.4382128728 -19.1094922205 -5.0956541775 0.9499999881 0.9499999881 0.9499999881
1230 1 -29.0892850384 -25.130048599 -13.3040506709 0.9499999881 0.9499999881 0.9499999881
5165 1 -21.5205174895 -27.3499698203 -2.6886327908 0.400000006 1.0 0.400000006
4755 1 -19.0856566091 -19.6109784697 -9.3452746779 1.0 0.400000006 0.400000006
11438 1 -18.1048931451 -18.9483359608 0.8562418768 0.400000006 1.0 0.400000006
1144 1 -16.6590537359 -24.946114003 -7.6423109569 0.400000006 1.0 0.400000006
2525 1 -23.6413488817 -27.8140385388 -6.9968726295 0.400000006 1.0 0.400000006
781 1 -19.4802266907 -25.0186718563 -4.0191729039 0.9499999881 0.9499999881 0.9499999881
11563 1 -16.2723662976 -26.5559874623 1.2518129289 1.0 0.400000006 0.400000006
6246 1 -19.6151074732 -16.2026737225 -0.1297766827 0.9499999881 0.9499999881 0.9499999881
12773 1 -13.9690079242 -25.9252133535 -5.1816125241 0.400000006 1.0 0.400000006
7938 1 -15.8066647458 -21.832882864 -0.738992388 1.0 0.400000006 0.400000006
6864 1 -17.1443367742 -17.9879672719 -7.8453828587 1.0 0.400000006 0.400000006
2828 1 -23.3019447901 -23.3216889343 -9.1384491366 0.9499999881 0.9499999881 0.9499999881
9908 1 -19.2543827087 -17.3023650009 -5.9710654904 0.9499999881 0.9499999881 0.9499999881
10129 1 -19.5692505096 -16.8313457931 -8.9620906365 0.400000006 1.0 0.400000006
8022 1 -23.402160711 -23.2208411507 -1.5549085134 0.9499999881 0.9499999881 0.9499999881
6852 1 -16.1220955927 -20.5083485742 -7.1956904064 0.9499999881 0.9499999881 0.9499999881
7867 1 -22.2923283497 -20.5179829158 -5.935280793 0.9499999881 0.9499999881 0.9499999881
9812 1 -14.3824713249 -25.0581100962 -10.6188845906 0.400000006 1.0 0.400000006
13243 1 -21.6350034969 -21.0172795419 -0.0012145267 0.9499999881 0.9499999881 0.9499999881
5065 1 -24.2765022367 -20.9494012259 0.13879623 0.9499999881 0.9499999881 0.9499999881
13000 1 -14.0306927348 -26.2289140766 -2.1395378795 0.400000006 1.0 0.400000006
9988 1 -15.3191295238 -28.489887603 -0.8297053448 0.400000006 1.0 0.400000006
2134 1 -15.0089537724 -23.3466131012 -5.9984670594 0.400000006 1.0 0.400000006
8889 1 -14.5951150077 -14.363327763 -3.5963254041 0.9499999881 0.9499999881 0.9499999881
5619 1 -16.9823672259 -20.0565354889 -12.9892454307 0.400000006 1.0 0.400000006
4960 1 -21.6366300741 -13.8342522629 -0.6213783476 0.9499999881 0.9499999881 0.9499999881
1460 1 -13.7694394193 -26.9167497632 -12.8142007045 0.400000006 1.0 0.400000006
8787 1 -16.2368318428 -21.1450284092 -4.1020032175 0.9499999881 0.9499999881 0.9499999881
1099 1 -17.6461983873 -23.1627410659 -5.8455688068 0.9499999881 0.9499999881 0.9499999881
179 1 -21.299553239 -27.6260750364 -13.4231036066 0.400000006 1.0 0.400000006
9474 1 -21.2125939218 -21.4501367472 -10.7050931799 1.0 0.400000006 0.400000006
3995 1 -20.3821637233 -22.5000297403 -4.9705954185 0.9499999881 0.9499999881 0.9499999881
11550 1 -17.3620478704 -19.3342726713 -1.6891011288 1.0 0.400000006 0.400000006
3859 1 -24.1234600945 -27.0830547652 0.8320934621 0.400000006 1.0 0.400000006
7416 1 -20.3319275135 -24.2802371081 -9.4995492651 0.400000006 1.0 0.400000006
12223 1 -22.4063764326 -15.091596404 -12.4617965077 0.400000006 1.0 0.400000006
2496 1 -24.0415181423 -16.9067939488 -10.9446379463 0.400000006 1.0 0.400000006
6154 1 -23.4854414614 -18.8258421889 -1.5423963815 0.9499999881 0.9499999881 0.9499999881
1520 1 -23.9002749406 -26.8951037749 -12.8711934656 0.400000006 1.0 0.400000006
6052 1 -22.033327218 -20.5851730645 -2.854293418 0.9499999881 0.9499999881 0.9499999881
2897 1 -24.6008041851 -14.2880047286 -10.4666745053 0.400000006 1.0 0.400000006
1646 1 -22.3958036811 -24.7437678049 -3.6301707211 0.9499999881 0.9499999881 0.9499999881
3929 1 -18.0580352109 -22.0645449873 -8.2946309569 0.9499999881 0.9499999881 0.9499999881
12824 1 -25.5954999081 -24.1188994224 -3.0542372868 0.9499999881 0.9499999881 0.9499999881
12991 1 -19.6475764557 -19.4664633455 -12.2632289734 1.0 0.400000006 0.400000006
12730 1 -17.7021276172 -17.7025655418 -10.6985243106 0.9499999881 0.9499999881 0.9499999881
7059 1 -14.8595589168 -23.5602765227 -2.8713724781 0.400000006 1.0 0.400000006
12731 1 -15.8253078225 -14.1142737763 0.9034126143 0.9499999881 0.9499999881 0.9499999881
9492 1 -21.2330512576 -27.5535171831 0.3585092673 0.400000006 1.0 0.400000006
1701 1 -25.3244808736 -16.0024796111 0.0570920082 0.9499999881 0.9499999881 0.9499999881
5405 1 -23.1968929301 -23.0455899743 -12.3167183376 1.0 0.400000006 0.400000006
3057 1 -17.2153431231 -18.5719084707 -4.6444666988 0.9499999881 0.9499999881 0.9499999881
6055 1 -15.2782148523 -29.0118599658 -11.3667347182 0.400000006 1.0 0.400000006
1106 1 -20.4636177024 -23.5525878176 -12.812636688 0.400000006 1.0 0.400000006
8740 1 -18.7056006007 -17.0586286702 -2.6847540299 0.9499999881 0.9499999881 0.9499999881
12 1 -22.1444975106 -25.9807984998 -8.6382766613 0.400000006 1.0 0.400000006
9429 1 -16.4020545454 -26.2069928214 -12.3104622716 0.400000006 1.0 0.400000006
4864 1 -17.7329074618 -23.2842338673 -2.9200446715 0.9499999881 0.9499999881 0.9499999881
9201 1 -16.609943618 -16.7141696772 -0.2863034535 0.9499999881 0.9499999881 0.9499999881
4368 1 -19.1071149155 -26.6154326012 -8.7003368358 0.400000006 1.0 0.400000006
10447 1 -18.5699690902 -27.432524867 -3.0890835743 0.400000006 1.0 0.400000006
2067 1 -15.7261491766 -22.2876363002 -11.8911181688 0.400000006 1.0 0.400000006
11174 1 -16.7268694912 -14.6041237427 -1.9627414548 0.9499999881 0.9499999881 0.9499999881
8160 1 -18.2249470513 -27.927360918 -0.2660963604 0.400000006 1.0 0.400000006
5073 1 -18.9128015061 -20.0858764384 -6.2898120522 0.9499999881 0.9499999881 0.9499999881
6145 1 -16.1777120192 -20.1894143304 -9.8433826515 0.400000006 1.0 0.400000006
156 1 -21.4423792254 -16.8086988342 -1.870026557 0.9499999881 0.9499999881 0.9499999881
861 1 -19.9895955829 -18.9588461517 -1.339261919 0.9499999881 0.9499999881 0.9499999881
5485 1 -24.3221777744 -14.0696680258 -4.7939241151 0.9499999881 0.9499999881 0.9499999881
13288 1 -23.551017545 -20.1794671855 -11.6912994213 0.400000006 1.0 0.400000006
12710 1 -22.1216628697 -15.277714367 -9.4736491519 0.400000006 1.0 0.400000006
3814 1 -23.5239663157 -28.7159392863 -4.216113861 0.400000006 1.0 0.400000006
4939 1 -22.6076340752 -23.7545086032 -6.4597893649 0.9499999881 0.9499999881 0.9499999881
3364 1 -23.1479642381 -20.3771588705 -8.8409731991 0.9499999881 0.9499999881 0.9499999881
13455 1 -17.8396359474 -23.9515684256 -13.2760234953 0.400000006 1.0 0.400000006
3253 1 -22.0684237482 -25.4388292477 -0.7928571161 0.400000006 1.0 0.400000006
11045 1 -19.8834301432 -24.701207788 -6.9349375763 0.9499999881 0.9499999881 0.9499999881
13435 1 -19.5875182222 -14.1711414161 -2.5931026632 0.9499999881 0.9499999881 0.9499999881
13361 1 -24.078848088 -14.8863974398 -7.6408720617 1.0 0.400000006 0.400000006
10491 1 -17.7529894336 -14.702281418 -10.4164382954 0.400000006 1.0 0.400000006
9876 1 -20.0582871874 -16.6753820681 -11.5313943748 0.400000006 1.0 0.400000006
11026 1 -16.6537986405 -25.692775478 -1.5425215028 0.400000006 1.0 0.400000006
4007 1 -19.1190640015 -14.3595741235 -5.5943877576 0.9499999881 0.9499999881 0.9499999881
3178 1 -20.5037190854 -23.3047099712 -2.0476362702 0.400000006 1.0 0.400000006
4936 1 -27.7516718171 -25.8093635237 -4.3272215929 1.0 0.400000006 0.400000006
3365 1 -26.3633068861 -18.4001168988 -1.162903419 0.9499999881 0.9499999881 0.9499999881
2269 1 -29.2372866056 -15.0538723262 -2.3399822336 0.9499999881 0.9499999881 0.9499999881