ITEM: TIMESTEP
1800000
ITEM: NUMBER OF ATOMS
14896
ITEM: BOX BOUNDS pp pp pp
0.0000000000000000e+00 1.8223110000000000e+02
0.0000000000000000e+00 1.8223110000000000e+02
0.0000000000000000e+00 1.8223110000000000e+02
ITEM: ATOMS id type xs ys zs
7478 1 0.455214 0.197336 0.486556
9595 1 0.598995 0.473861 0.490092
3911 1 0.38303 0.105257 0.065402
7967 1 0.396539 0.807856 0.376331
14535 1 0.397358 0.362631 0.497807
7793 1 0.282056 0.992174 0.0787925
825 1 0.492836 0.294968 0.18121
10478 1 0.364069 0.268786 0.191755
8306 1 0.51301 0.444903 0.490268
1649 1 0.758956 0.38171 0.104081
9269 1 0.0624965 0.639022 0.136228
2197 1 0.457556 0.211108 0.493987
3527 1 0.566972 0.508536 0.471622
8309 1 0.365642 0.333657 0.112104
13382 1 0.417182 0.914959 0.0399584
4864 1 0.769055 0.658974 0.108634
455 1 0.994457 0.362495 0.193625
6161 1 0.504422 0.366943 0.491152
4551 1 0.288066 0.745114 0.349216
8151 1 0.0136307 0.705117 0.333734
3664 1 0.52506 0.596017 0.142588
6480 1 0.223838 0.892777 0.095309
8853 1 0.213211 0.899925 0.0858286
11673 1 0.379918 0.987533 0.153405
3412 1 0.0446871 0.456897 0.193738
14151 1 0.788866 0.440407 0.348411
13640 1 0.830714 0.0133773 0.106913
2436 1 0.125689 0.837059 0.18728
2093 1 0.043615 0.599934 0.0212136
3260 1 0.455125 0.537795 0.478163
14642 1 0.401638 0.0851354 0.0403648
6809 1 0.0697843 0.650697 0.17839
13782 1 0.501178 0.497914 0.498452
4494 1 0.424368 0.871191 0.0637619
13988 1 0.736826 0.0465846 0.162569
1903 1 0.709484 0.103563 0.169831
4907 1 0.314394 0.333703 0.487099
1764 1 0.519 0.278645 0.187241
14528 1 0.561565 0.30779 0.22772
11201 1 0.552646 0.81171 0.358228
3992 1 0.523048 0.740438 0.103626
4438 1 0.119081 0.224386 0.157824
9923 1 0.744708 0.672457 0.163378
6832 1 0.426351 0.357756 0.172056
1795 1 0.472426 0.304709 0.196005
308 1 0.393423 0.294251 0.207752
10951 1 0.461001 0.313702 0.20344
9453 1 0.46483 0.37413 0.155081
2744 1 0.455883 0.301393 0.196254
606 1 0.456452 0.324872 0.173459
12775 1 0.453887 0.342419 0.175777
2832 1 0.419095 0.315205 0.186804
4735 1 0.479462 0.357952 0.185999
4246 1 0.390947 0.339373 0.192012
8353 1 0.475949 0.363275 0.160533
4381 1 0.439527 0.324495 0.179209
13000 1 0.389822 0.354778 0.184917
4176 1 0.463963 0.304359 0.183168
11613 1 0.505024 0.286789 0.190819
2028 1 0.459765 0.356659 0.199905
11493 1 0.411939 0.33245 0.172461
2619 1 0.379658 0.327416 0.198581
9536 1 0.405267 0.301804 0.193191
3675 1 0.402042 0.329011 0.185009
12690 1 0.452583 0.326017 0.209035
9840 1 0.417538 0.352625 0.185457
6267 1 0.382611 0.350322 0.200489
13449 1 0.50068 0.338543 0.180893
9071 1 0.535611 0.306887 0.20516
12074 1 0.483451 0.319892 0.188869
8385 1 0.476821 0.297282 0.181803
180 1 0.501019 0.361075 0.173728
11088 1 0.4686 0.323043 0.18148
14262 1 0.534903 0.366285 0.189955
2058 1 0.515391 0.333537 0.178432
7426 1 0.532101 0.31105 0.190115
1138 1 0.489624 0.333074 0.189125
5529 1 0.485935 0.358772 0.172135
640 1 0.554781 0.30237 0.203677
12643 1 0.529533 0.29681 0.187201
5759 1 0.475497 0.290306 0.198046
13392 1 0.506746 0.333935 0.167692
12931 1 0.509505 0.27469 0.200698
3346 1 0.48602 0.304777 0.196154
7971 1 0.481417 0.343849 0.179859
1031 1 0.479246 0.409401 0.173035
4395 1 0.514555 0.394904 0.140076
13573 1 0.545539 0.318702 0.189218
12653 1 0.499606 0.393952 0.196721
6900 1 0.521322 0.371835 0.184414
5538 1 0.473177 0.248144 0.222974
4266 1 0.500713 0.301246 0.221936
2179 1 0.488048 0.394829 0.17755
9336 1 0.53627 0.286821 0.205527
4691 1 0.455605 0.319267 0.187243
1045 1 0.483098 0.329514 0.175584
3051 1 0.551219 0.33357 0.192077
7545 1 0.529275 0.324121 0.184765
14434 1 0.494046 0.270772 0.2012
13170 1 0.49605 0.319223 0.171573
2834 1 0.526911 0.321545 0.201331
7159 1 0.511844 0.318347 0.173626
9717 1 0.518757 0.377849 0.157483
8831 1 0.537615 0.337116 0.195102
14043 1 0.468491 0.352527 0.176142
11790 1 0.488989 0.250043 0.220434
49 1 0.550109 0.368023 0.184062
7891 1 0.591873 0.332439 0.205296
12120 1 0.543111 0.335466 0.210541
7854 1 0.422199 0.532539 0.490287
2159 1 0.825903 0.371293 0.00983696
3348 1 0.207396 0.282832 0.219078
7444 1 0.0930824 0.10236 0.137527
10954 1 0.342527 0.677285 0.193032
7428 1 0.433708 0.376597 0.175142
8851 1 0.466299 0.383899 0.169036
7300 1 0.487793 0.413394 0.161196
10175 1 0.451913 0.417991 0.200714
9320 1 0.405819 0.394005 0.172867
307 1 0.398108 0.457219 0.20362
5252 1 0.462681 0.368688 0.171133
5373 1 0.449548 0.407608 0.188075
591 1 0.473922 0.389381 0.180817
10765 1 0.491042 0.407281 0.186397
13667 1 0.463312 0.41728 0.210659
10447 1 0.491704 0.367069 0.184332
9259 1 0.458313 0.395909 0.176731
8449 1 0.492336 0.383571 0.187366
7194 1 0.492681 0.342589 0.169085
13590 1 0.476837 0.373403 0.176774
904 1 0.478629 0.402741 0.153129
14542 1 0.516345 0.363755 0.172531
3095 1 0.491606 0.372508 0.169193
12443 1 0.466127 0.399049 0.163325
866 1 0.482012 0.491856 0.227048
9363 1 0.372914 0.253589 0.464223
10736 1 0.390235 0.182485 0.493409
14712 1 0.358231 0.451457 0.246052
13207 1 0.0675013 0.564928 0.335651
10474 1 0.526954 0.452116 0.494898
14182 1 0.63378 0.368027 0.248751
7997 1 0.22157 0.579191 0.385014
9419 1 0.370187 0.45006 0.217843
2819 1 0.145734 0.666742 0.338547
11481 1 0.688281 0.869223 0.118501
14201 1 0.373816 0.269319 0.495231
12497 1 0.576609 0.72933 0.301118
5562 1 0.713522 0.84162 0.010218
5924 1 0.0669957 0.0128953 0.354363
1034 1 0.359288 0.911587 0.271639
1548 1 0.578232 0.845126 0.249683
13397 1 0.688801 0.36112 0.132998
8885 1 0.8673 0.453028 0.0768625
5337 1 0.894328 0.987647 0.0321279
11204 1 0.657946 0.376635 0.494452
9960 1 0.423431 0.20131 0.262595
6101 1 0.421634 0.166742 0.287973
6421 1 0.458527 0.194147 0.234973
5140 1 0.448564 0.210275 0.230491
608 1 0.395508 0.174836 0.271369
7089 1 0.449757 0.17682 0.288612
10097 1 0.431251 0.180629 0.281088
5355 1 0.42593 0.170041 0.272807
13076 1 0.431973 0.193315 0.248437
6896 1 0.499434 0.194377 0.247683
8451 1 0.419561 0.185174 0.253071
229 1 0.472427 0.179575 0.261745
3977 1 0.453256 0.150992 0.278106
10993 1 0.493221 0.196315 0.228313
10885 1 0.574487 0.166606 0.285953
707 1 0.520389 0.186854 0.26148
794 1 0.558316 0.185191 0.276404
9137 1 0.459469 0.18414 0.275345
7819 1 0.508886 0.180963 0.310707
4851 1 0.489726 0.133371 0.337769
11949 1 0.578667 0.177241 0.300439
11755 1 0.0833678 0.686805 0.0752199
1480 1 0.373938 0.212701 0.302531
2900 1 0.360366 0.245264 0.279093
2001 1 0.362012 0.251107 0.245175
12552 1 0.310096 0.275669 0.272817
6066 1 0.332234 0.258631 0.259988
13568 1 0.302714 0.286145 0.261531
6998 1 0.352999 0.27178 0.223633
5899 1 0.343324 0.18008 0.334086
4182 1 0.320409 0.251838 0.249853
2406 1 0.319287 0.215173 0.282387
7083 1 0.276448 0.326596 0.266045
1380 1 0.328193 0.240636 0.263852
7530 1 0.337594 0.287933 0.27054
12994 1 0.343789 0.225687 0.264895
7405 1 0.319939 0.265491 0.281087
10338 1 0.358143 0.212479 0.283936
7679 1 0.337917 0.265315 0.233033
10155 1 0.370051 0.224648 0.249716
10410 1 0.349358 0.277049 0.240582
14628 1 0.380236 0.170311 0.316575
5757 1 0.355823 0.268247 0.266794
9766 1 0.338295 0.270754 0.248197
12384 1 0.357949 0.250876 0.263151
3571 1 0.359254 0.218491 0.263706
11626 1 0.339631 0.274981 0.294001
6840 1 0.371179 0.271351 0.274726
7381 1 0.350483 0.260757 0.253838
14466 1 0.353207 0.175186 0.32287
6508 1 0.359711 0.30524 0.20289
11905 1 0.336824 0.281931 0.235748
502 1 0.426191 0.152029 0.28029
3063 1 0.31276 0.250532 0.282483
7609 1 0.337152 0.216512 0.277043
7370 1 0.349502 0.207477 0.273126
9448 1 0.378716 0.20561 0.273216
4965 1 0.350129 0.243956 0.240318
358 1 0.369424 0.252383 0.287832
8572 1 0.283625 0.266571 0.283227
12154 1 0.362048 0.269384 0.244747
7572 1 0.358976 0.235266 0.266292
6379 1 0.392645 0.222631 0.291181
10841 1 0.372461 0.295994 0.20431
2192 1 0.376954 0.251611 0.239381
14075 1 0.338981 0.254023 0.245521
1742 1 0.36017 0.296791 0.233934
7450 1 0.294311 0.269814 0.273342
6093 1 0.351311 0.260627 0.238682
14028 1 0.304882 0.270073 0.285783
2005 1 0.323014 0.286072 0.272684
9592 1 0.349432 0.286302 0.224139
832 1 0.367736 0.261826 0.255466
14008 1 0.358555 0.287471 0.246407
6090 1 0.350379 0.294343 0.25896
8269 1 0.384255 0.23702 0.243504
14394 1 0.355989 0.249673 0.296361
411 1 0.325729 0.238264 0.28075
3946 1 0.34312 0.245048 0.258169
13286 1 0.349779 0.276881 0.256193
376 1 0.32262 0.180825 0.301687
9554 1 0.341926 0.278344 0.213667
8196 1 0.383907 0.191012 0.250589
9226 1 0.310215 0.211319 0.312162
10403 1 0.419956 0.254145 0.20995
8705 1 0.424944 0.259157 0.190122
8728 1 0.418786 0.280031 0.197194
14034 1 0.41518 0.235336 0.230701
2216 1 0.430401 0.196938 0.284497
4373 1 0.398588 0.182242 0.254149
5645 1 0.472805 0.21885 0.235041
13986 1 0.422359 0.206372 0.276455
3939 1 0.378959 0.241294 0.287688
11717 1 0.374148 0.214485 0.262205
13294 1 0.38645 0.27863 0.212838
7566 1 0.398846 0.234733 0.242148
11295 1 0.41386 0.269012 0.205962
10036 1 0.366885 0.234054 0.239941
1410 1 0.371686 0.203669 0.2502
366 1 0.409719 0.295078 0.206454
10786 1 0.386003 0.277654 0.276145
142 1 0.497294 0.223481 0.225189
13938 1 0.394155 0.262375 0.255752
14506 1 0.440722 0.265975 0.21604
12649 1 0.380214 0.285517 0.264526
8692 1 0.442443 0.306856 0.213041
13380 1 0.388632 0.258174 0.231575
11875 1 0.421146 0.265893 0.22053
747 1 0.444426 0.195132 0.240057
4240 1 0.343468 0.189278 0.290355
7847 1 0.445607 0.252384 0.240598
4486 1 0.43741 0.264623 0.231443
10499 1 0.495716 0.17189 0.25068
12547 1 0.409384 0.246376 0.250915
3922 1 0.483544 0.312418 0.177012
8515 1 0.402136 0.271911 0.1987
10876 1 0.409006 0.230898 0.289392
185 1 0.443184 0.250593 0.220481
1814 1 0.383636 0.225931 0.254438
6728 1 0.47068 0.230737 0.256498
6472 1 0.365268 0.262636 0.23074
13073 1 0.402444 0.209781 0.242082
6399 1 0.385185 0.199599 0.237089
11838 1 0.367029 0.233041 0.283346
8902 1 0.435271 0.247324 0.294115
1569 1 0.396883 0.247249 0.257992
12624 1 0.400124 0.197688 0.251295
11854 1 0.382872 0.228641 0.280526
1704 1 0.456801 0.204973 0.249659
13201 1 0.463775 0.206647 0.232408
6789 1 0.407516 0.27093 0.261385
2274 1 0.415429 0.281924 0.270625
14357 1 0.434823 0.207727 0.238137
10216 1 0.492944 0.27993 0.184885
14718 1 0.413323 0.229231 0.273881
7511 1 0.423439 0.20846 0.249224
6432 1 0.42264 0.268028 0.286864
2577 1 0.438368 0.286367 0.246512
6965 1 0.402619 0.235061 0.219194
10981 1 0.446207 0.184732 0.250874
7337 1 0.386678 0.253467 0.268142
8211 1 0.442747 0.182926 0.226971
14024 1 0.404074 0.262441 0.230957
4807 1 0.442564 0.219858 0.242624
1278 1 0.408089 0.269138 0.276819
6575 1 0.44786 0.200873 0.278957
3283 1 0.431003 0.221472 0.229613
6768 1 0.410199 0.229216 0.255953
12480 1 0.421646 0.232717 0.244203
1719 1 0.391107 0.219881 0.238744
10968 1 0.374827 0.215675 0.240613
7045 1 0.424863 0.230404 0.263608
11031 1 0.390245 0.316359 0.208785
11403 1 0.437394 0.269427 0.246166
10853 1 0.376053 0.255265 0.223042
2240 1 0.356613 0.230552 0.25292
9777 1 0.417921 0.244173 0.268773
8365 1 0.461603 0.248188 0.233195
8890 1 0.474295 0.221534 0.271844
7206 1 0.409365 0.207056 0.256848
12976 1 0.383735 0.239147 0.261279
12959 1 0.393274 0.242838 0.230183
10166 1 0.392564 0.205714 0.265979
3710 1 0.447414 0.259088 0.269582
7466 1 0.398648 0.218071 0.253103
7234 1 0.421989 0.240274 0.285296
8521 1 0.434866 0.275271 0.277471
12639 1 0.43733 0.267783 0.262067
220 1 0.44677 0.248408 0.283227
9261 1 0.429533 0.277068 0.236528
7376 1 0.417388 0.256597 0.257902
13909 1 0.451893 0.245248 0.267816
11671 1 0.375019 0.242539 0.272911
3531 1 0.412319 0.284893 0.256375
7077 1 0.410164 0.261639 0.245695
6020 1 0.414962 0.272192 0.235041
13487 1 0.433182 0.278799 0.219756
1194 1 0.372159 0.229108 0.26457
4502 1 0.417002 0.216232 0.266092
464 1 0.427 0.243575 0.252986
4699 1 0.511132 0.303645 0.183848
3590 1 0.430025 0.221401 0.252219
2879 1 0.470745 0.233966 0.230099
7636 1 0.44134 0.236605 0.24448
11972 1 0.415184 0.219809 0.244813
8179 1 0.455697 0.233669 0.235093
7404 1 0.463336 0.255837 0.271861
1239 1 0.471454 0.21741 0.252121
6391 1 0.457745 0.284099 0.266306
10934 1 0.473019 0.262353 0.184452
6972 1 0.45066 0.272619 0.240461
2961 1 0.395502 0.23055 0.261035
11418 1 0.388899 0.293571 0.255752
11645 1 0.439518 0.240405 0.259818
9289 1 0.401792 0.216579 0.267849
12354 1 0.395927 0.253349 0.243404
8660 1 0.459931 0.269432 0.263422
8427 1 0.453244 0.201023 0.265673
1881 1 0.453271 0.234079 0.279623
14146 1 0.483717 0.210226 0.229317
5758 1 0.465341 0.211922 0.26707
11856 1 0.425055 0.258896 0.24287
4319 1 0.468823 0.237851 0.27042
7598 1 0.415513 0.249822 0.235383
964 1 0.468924 0.239946 0.243319
3433 1 0.449646 0.254816 0.204252
10599 1 0.460361 0.221747 0.226751
12526 1 0.479981 0.198872 0.242084
8736 1 0.406727 0.252384 0.21881
5669 1 0.457919 0.224794 0.247934
13823 1 0.437771 0.254444 0.253142
12449 1 0.451389 0.259181 0.228893
756 1 0.461028 0.226348 0.266287
1078 1 0.458829 0.266176 0.199837
1663 1 0.391946 0.277655 0.257665
9475 1 0.463247 0.276003 0.249989
4200 1 0.428311 0.279874 0.261324
5508 1 0.443861 0.224547 0.257116
9946 1 0.37025 0.242925 0.256091
10511 1 0.375143 0.311458 0.209307
4892 1 0.420033 0.270556 0.252397
10484 1 0.44392 0.285005 0.281125
8965 1 0.391672 0.269823 0.239847
9255 1 0.380032 0.264953 0.246649
1270 1 0.429967 0.253785 0.266246
3536 1 0.447619 0.183707 0.267001
1552 1 0.460209 0.189826 0.256754
5634 1 0.418804 0.257579 0.277759
7603 1 0.524291 0.176449 0.232629
14447 1 0.429847 0.289873 0.189392
6341 1 0.497907 0.224057 0.267331
7157 1 0.432945 0.266807 0.202774
2165 1 0.516638 0.261276 0.226436
10706 1 0.453501 0.240639 0.217574
3345 1 0.540012 0.203287 0.275423
38 1 0.503367 0.205776 0.236704
10269 1 0.473387 0.192417 0.266686
9535 1 0.485303 0.233392 0.277364
164 1 0.512211 0.187215 0.274153
9210 1 0.517068 0.244058 0.214448
14704 1 0.434385 0.283838 0.205459
7861 1 0.513157 0.217982 0.229369
13933 1 0.488142 0.198905 0.256097
13656 1 0.5183 0.204806 0.234913
2659 1 0.54421 0.2689 0.227691
12019 1 0.533458 0.242249 0.218064
1949 1 0.489206 0.2042 0.282474
5454 1 0.48328 0.243333 0.232618
9278 1 0.488904 0.176255 0.280296
8082 1 0.470788 0.20277 0.255359
5277 1 0.470332 0.263973 0.2247
12130 1 0.428135 0.236059 0.220287
4620 1 0.511404 0.171 0.246836
5046 1 0.495601 0.208461 0.266977
3280 1 0.50717 0.18314 0.25665
7425 1 0.509613 0.232512 0.247607
12278 1 0.498489 0.23808 0.255401
8615 1 0.496878 0.16336 0.277267
9566 1 0.52927 0.2443 0.260134
908 1 0.535895 0.228892 0.22036
8418 1 0.54904 0.222003 0.233932
1202 1 0.509564 0.220288 0.256931
7765 1 0.471056 0.247623 0.258789
8467 1 0.554102 0.181948 0.29264
7973 1 0.487457 0.166383 0.292627
915 1 0.478036 0.205848 0.271223
4679 1 0.526379 0.200403 0.246352
9899 1 0.49322 0.223745 0.252746
8392 1 0.522346 0.218523 0.244325
7451 1 0.44279 0.23838 0.229321
12722 1 0.508136 0.230951 0.21644
10157 1 0.527865 0.237792 0.272466
4169 1 0.52435 0.243401 0.230502
1863 1 0.538519 0.21037 0.256079
13702 1 0.519773 0.211956 0.279818
5010 1 0.540309 0.227707 0.271609
14497 1 0.484845 0.233283 0.262502
10326 1 0.513933 0.195332 0.286878
11447 1 0.515968 0.237633 0.2606
14322 1 0.526174 0.261012 0.256669
11500 1 0.528469 0.254835 0.281224
6015 1 0.550049 0.236247 0.279362
11823 1 0.430355 0.249352 0.226792
9103 1 0.487163 0.182962 0.260858
2148 1 0.521443 0.18129 0.284318
13657 1 0.46203 0.262593 0.239957
11453 1 0.540229 0.182797 0.293
9622 1 0.447708 0.275371 0.255504
2450 1 0.483264 0.214687 0.260817
2807 1 0.529416 0.216096 0.269318
8238 1 0.551169 0.217946 0.250088
11896 1 0.474358 0.256644 0.282345
3058 1 0.538554 0.224357 0.245898
10915 1 0.50257 0.168259 0.262507
13918 1 0.510907 0.210101 0.267916
3 1 0.502215 0.269062 0.245086
14348 1 0.471003 0.262235 0.252495
9301 1 0.486285 0.214159 0.244432
4368 1 0.456289 0.243403 0.253238
3097 1 0.495329 0.231244 0.24046
3604 1 0.463911 0.200044 0.278762
2144 1 0.569832 0.238929 0.238774
3558 1 0.487441 0.24348 0.247422
1152 1 0.54996 0.264932 0.264896
8959 1 0.491015 0.290609 0.198606
8842 1 0.508676 0.232982 0.232275
12687 1 0.525603 0.266764 0.200835
13114 1 0.56645 0.236499 0.298066
10152 1 0.505246 0.21977 0.241542
2718 1 0.484168 0.227996 0.229758
1728 1 0.510857 0.262463 0.263938
4253 1 0.51098 0.204664 0.249427
9731 1 0.531874 0.278702 0.194055
1991 1 0.486274 0.25939 0.254163
10807 1 0.523623 0.268959 0.27223
14068 1 0.538262 0.233881 0.257994
4534 1 0.524743 0.204818 0.26135
4931 1 0.558958 0.224341 0.28863
4431 1 0.518585 0.274398 0.257154
12956 1 0.531144 0.255304 0.225611
13447 1 0.502576 0.200432 0.277948
9692 1 0.498154 0.182794 0.271198
10608 1 0.485589 0.167665 0.261558
11607 1 0.558716 0.274878 0.257177
1580 1 0.553888 0.247571 0.241723
2297 1 0.51946 0.252284 0.269509
14379 1 0.543272 0.258443 0.24125
4118 1 0.565681 0.261606 0.266002
631 1 0.46635 0.273114 0.278662
3904 1 0.494269 0.268915 0.264312
7442 1 0.504665 0.24651 0.243203
8727 1 0.527638 0.282967 0.265523
174 1 0.537595 0.264329 0.290871
3204 1 0.479187 0.228735 0.244159
5436 1 0.514666 0.224316 0.271271
14461 1 0.549408 0.213223 0.285056
11042 1 0.443764 0.223614 0.219175
1425 1 0.530434 0.212017 0.233092
11273 1 0.539002 0.271379 0.275407
4151 1 0.502218 0.247012 0.226052
14265 1 0.509349 0.274509 0.23018
7407 1 0.544237 0.244269 0.230079
4594 1 0.523155 0.268974 0.288602
4406 1 0.510594 0.287518 0.221061
13816 1 0.502125 0.177062 0.286204
9523 1 0.511469 0.208246 0.293269
352 1 0.541554 0.200857 0.293098
9952 1 0.542544 0.244042 0.269405
6677 1 0.53874 0.242275 0.244223
7200 1 0.524958 0.224268 0.258197
3203 1 0.533861 0.26456 0.213193
5810 1 0.550665 0.279992 0.271238
4056 1 0.545776 0.256268 0.218418
12235 1 0.525204 0.253506 0.24145
760 1 0.490305 0.258765 0.24011
4441 1 0.515518 0.251456 0.252691
9672 1 0.523121 0.237726 0.246994
6803 1 0.545073 0.252265 0.28285
9154 1 0.475342 0.263497 0.269094
2172 1 0.547959 0.270482 0.211579
5421 1 0.476442 0.255221 0.237453
6095 1 0.524664 0.197859 0.274766
10624 1 0.513691 0.258771 0.209362
13266 1 0.504548 0.197991 0.26316
9518 1 0.5283 0.225694 0.280814
6150 1 0.543659 0.282046 0.28553
6424 1 0.540512 0.214591 0.301549
2682 1 0.500319 0.293121 0.266066
6222 1 0.532371 0.231641 0.234503
6642 1 0.53408 0.256687 0.268082
9031 1 0.564225 0.193459 0.29514
14463 1 0.539553 0.289876 0.271704
8391 1 0.531508 0.267319 0.2451
13801 1 0.554078 0.305661 0.284774
8519 1 0.513963 0.18934 0.244653
10689 1 0.546685 0.302101 0.191258
9925 1 0.536787 0.279984 0.236204
11804 1 0.484839 0.300658 0.239887
3796 1 0.457431 0.272777 0.29055
4142 1 0.514881 0.263998 0.244423
5610 1 0.55471 0.257039 0.229918
4866 1 0.533636 0.284666 0.221063
2739 1 0.473556 0.272033 0.240049
13159 1 0.48306 0.247354 0.268597
9464 1 0.503861 0.259862 0.233223
13388 1 0.559872 0.252447 0.284958
3432 1 0.552277 0.23441 0.26248
12100 1 0.479503 0.227588 0.296374
8979 1 0.458088 0.172386 0.26403
12601 1 0.502219 0.214526 0.283561
10766 1 0.514166 0.224566 0.287622
14728 1 0.56465 0.209502 0.289635
3606 1 0.471661 0.268005 0.291088
8333 1 0.497079 0.240532 0.268852
7548 1 0.546007 0.254352 0.32165
3038 1 0.5022 0.229855 0.279633
3833 1 0.499765 0.251723 0.260118
7459 1 0.542221 0.226134 0.290937
14012 1 0.565579 0.182977 0.307709
11168 1 0.554679 0.26552 0.278923
3999 1 0.641734 0.264255 0.270224
3015 1 0.537313 0.274047 0.260238
10719 1 0.578345 0.220534 0.263848
11420 1 0.576664 0.200124 0.286403
12086 1 0.573901 0.264324 0.279822
9921 1 0.549766 0.216849 0.2674
6722 1 0.575044 0.224319 0.290479
12314 1 0.565019 0.234141 0.252314
12809 1 0.584869 0.261029 0.250718
4309 1 0.544383 0.275535 0.247653
10472 1 0.606576 0.244525 0.282383
4303 1 0.549987 0.240312 0.29413
5418 1 0.566342 0.198344 0.31035
1553 1 0.562 0.225315 0.272421
10037 1 0.564585 0.219071 0.259235
14019 1 0.607675 0.202009 0.3126
1352 1 0.571363 0.266135 0.253677
3575 1 0.58211 0.23593 0.261358
7922 1 0.604694 0.25496 0.248769
3494 1 0.604779 0.253856 0.265171
8748 1 0.588385 0.187888 0.29006
8667 1 0.55088 0.233867 0.247842
2689 1 0.592029 0.249136 0.257135
7340 1 0.563128 0.206395 0.272687
4508 1 0.583312 0.271957 0.23895
5533 1 0.559765 0.250862 0.256826
14832 1 0.56734 0.237822 0.266623
14197 1 0.590588 0.228215 0.289288
13250 1 0.574184 0.248715 0.274128
11139 1 0.563888 0.286925 0.265322
2456 1 0.634574 0.259291 0.285972
292 1 0.577854 0.193276 0.300214
9906 1 0.591985 0.289752 0.255984
3291 1 0.591727 0.245371 0.274557
45 1 0.58518 0.245904 0.244046
5740 1 0.569913 0.252158 0.244807
5985 1 0.554193 0.276569 0.236083
4261 1 0.535661 0.239555 0.285672
9055 1 0.54221 0.207883 0.242243
12588 1 0.622187 0.300738 0.277369
10510 1 0.536318 0.194019 0.262261
14215 1 0.577108 0.230431 0.275134
4617 1 0.576936 0.251356 0.258467
495 1 0.557167 0.247867 0.271402
13759 1 0.577109 0.281755 0.286969
14276 1 0.56429 0.276308 0.275916
6428 1 0.591022 0.225098 0.271448
3026 1 0.633011 0.293095 0.283043
9398 1 0.559763 0.261048 0.204858
9611 1 0.59988 0.284479 0.24324
11726 1 0.586895 0.259346 0.270185
2803 1 0.55408 0.197456 0.283685
11036 1 0.513822 0.172347 0.275371
11644 1 0.565231 0.237873 0.282339
7515 1 0.631191 0.265772 0.256436
2875 1 0.604626 0.227135 0.284559
7985 1 0.609164 0.257351 0.28885
2801 1 0.580372 0.240684 0.288905
13454 1 0.573271 0.21566 0.278611
3628 1 0.663709 0.2899 0.274481
13914 1 0.582477 0.251233 0.300787
5065 1 0.266946 0.314785 0.255649
11848 1 0.285052 0.294413 0.26454
13022 1 0.280106 0.313016 0.278036
13118 1 0.351326 0.299448 0.214812
13062 1 0.342144 0.331991 0.235967
2876 1 0.38498 0.285158 0.227688
1564 1 0.363359 0.324228 0.208201
13764 1 0.396229 0.375454 0.181924
2925 1 0.30606 0.317953 0.231621
859 1 0.339254 0.304231 0.252187
5399 1 0.24617 0.362957 0.285507
14205 1 0.374531 0.288903 0.237829
5956 1 0.331544 0.276138 0.26043
5658 1 0.325913 0.264724 0.24419
13113 1 0.313011 0.306967 0.25924
14745 1 0.381011 0.305151 0.222207
5179 1 0.352627 0.281063 0.271593
3779 1 0.32851 0.268101 0.300181
6667 1 0.397779 0.264183 0.213654
8410 1 0.322642 0.3006 0.277311
13282 1 0.287275 0.303636 0.251252
1053 1 0.27186 0.298245 0.296458
3616 1 0.293654 0.299415 0.280234
12155 1 0.3287 0.295991 0.260616
2031 1 0.322183 0.347244 0.228201
14267 1 0.301196 0.344647 0.246904
10271 1 0.290468 0.328127 0.274695
4880 1 0.297687 0.302559 0.263375
3881 1 0.348648 0.348432 0.213484
10125 1 0.278058 0.368707 0.255684
9981 1 0.318899 0.284312 0.259064
11492 1 0.361372 0.350291 0.23752
5771 1 0.308691 0.309245 0.27391
9384 1 0.352799 0.323432 0.230167
1869 1 0.318574 0.336201 0.216358
13557 1 0.390585 0.292588 0.272868
562 1 0.327042 0.318353 0.24307
3243 1 0.349221 0.338794 0.255327
5217 1 0.35398 0.315486 0.215296
9799 1 0.36984 0.349927 0.26448
2496 1 0.303414 0.323072 0.261517
11714 1 0.357207 0.331606 0.309306
11126 1 0.326852 0.293652 0.24165
1880 1 0.340556 0.335332 0.269214
8034 1 0.311148 0.332659 0.232414
2945 1 0.33805 0.29319 0.207684
4350 1 0.318986 0.373311 0.245245
5357 1 0.334251 0.329811 0.250037
2017 1 0.314127 0.350677 0.242343
12363 1 0.298262 0.335587 0.285317
9902 1 0.313229 0.292788 0.248756
14310 1 0.310463 0.293959 0.271042
14495 1 0.303916 0.373189 0.244363
7373 1 0.292229 0.335831 0.260592
6861 1 0.307892 0.377573 0.257764
8372 1 0.31677 0.305604 0.228155
4861 1 0.328117 0.345843 0.273384
1976 1 0.278114 0.307659 0.264022
2034 1 0.303513 0.329588 0.246665
13389 1 0.344083 0.323892 0.286081
4236 1 0.344757 0.295905 0.239373
6470 1 0.29198 0.358085 0.257364
2335 1 0.322559 0.359045 0.255035
10317 1 0.305043 0.347742 0.277534
11599 1 0.341749 0.320694 0.258447
7392 1 0.30458 0.335394 0.270955
3974 1 0.337992 0.288723 0.250462
1674 1 0.363381 0.278729 0.23276
14069 1 0.35144 0.340015 0.229179
4415 1 0.330901 0.292304 0.28849
14156 1 0.383669 0.304454 0.24361
6121 1 0.358981 0.339472 0.265875
654 1 0.324608 0.385849 0.242025
7964 1 0.314932 0.355545 0.267241
9098 1 0.291427 0.33615 0.300318
1603 1 0.272091 0.31168 0.291227
5798 1 0.307525 0.346036 0.291826
14015 1 0.302496 0.346542 0.262541
13831 1 0.338332 0.298374 0.225035
1770 1 0.318076 0.426431 0.246161
14525 1 0.317129 0.341254 0.262461
2109 1 0.318194 0.336098 0.247658
10084 1 0.301906 0.422476 0.242632
8026 1 0.357514 0.335329 0.24268
1233 1 0.353556 0.305299 0.248448
2105 1 0.32819 0.326175 0.283299
2686 1 0.331001 0.306382 0.234576
9174 1 0.333939 0.335386 0.217625
12265 1 0.36687 0.360897 0.277064
12997 1 0.351344 0.385243 0.267613
12706 1 0.293857 0.313922 0.271356
12064 1 0.305808 0.361908 0.254433
9054 1 0.312444 0.310212 0.242993
9843 1 0.352063 0.320045 0.245955
7779 1 0.285363 0.367134 0.272579
4345 1 0.367567 0.327101 0.237167
13599 1 0.299427 0.31185 0.25262
14705 1 0.321406 0.320302 0.227871
21 1 0.331645 0.344755 0.257814
13981 1 0.365522 0.303359 0.220994
2434 1 0.361211 0.326399 0.193996
9641 1 0.382019 0.368782 0.185079
8315 1 0.353459 0.378376 0.281603
8190 1 0.371699 0.371713 0.241222
13297 1 0.377759 0.314876 0.233653
11594 1 0.271612 0.371102 0.282291
11229 1 0.289305 0.346223 0.278537
471 1 0.337439 0.319722 0.272591
3396 1 0.327035 0.334506 0.23167
7724 1 0.367585 0.349414 0.206168
4717 1 0.378187 0.377506 0.226054
3721 1 0.364771 0.334175 0.221515
10204 1 0.363789 0.311381 0.238736
665 1 0.365469 0.318276 0.223824
11787 1 0.362675 0.314406 0.256653
4556 1 0.363489 0.364287 0.231318
5779 1 0.331277 0.311118 0.218249
11668 1 0.371057 0.316377 0.186638
1261 1 0.340363 0.370751 0.266036
5058 1 0.356089 0.362951 0.245499
971 1 0.329742 0.34581 0.241448
1235 1 0.356342 0.357995 0.263538
9770 1 0.375354 0.365496 0.265808
1821 1 0.34222 0.357716 0.2541
12647 1 0.256162 0.352829 0.277044
4474 1 0.316939 0.371116 0.268523
10601 1 0.370388 0.341871 0.193391
2171 1 0.333305 0.356784 0.284941
1491 1 0.353922 0.32313 0.267347
1583 1 0.342644 0.351585 0.268574
11480 1 0.317162 0.320746 0.254964
10674 1 0.370861 0.29855 0.249124
3715 1 0.270471 0.353817 0.282059
10998 1 0.309895 0.368615 0.282052
9082 1 0.389149 0.271895 0.225498
9207 1 0.393825 0.295567 0.234628
1028 1 0.375937 0.348607 0.223217
6343 1 0.378579 0.312673 0.257687
5405 1 0.33855 0.32082 0.225553
677 1 0.390923 0.319018 0.224501
1749 1 0.36237 0.372599 0.269766
9848 1 0.32835 0.328413 0.263869
11864 1 0.378531 0.316545 0.270842
4305 1 0.368154 0.286849 0.276102
1738 1 0.346666 0.347243 0.242023
3381 1 0.337686 0.348316 0.225831
3938 1 0.386654 0.349803 0.247658
841 1 0.349275 0.35672 0.230711
4970 1 0.331521 0.349149 0.212129
3473 1 0.322383 0.367173 0.231278
11980 1 0.333547 0.360469 0.238218
2379 1 0.323956 0.38469 0.223803
12128 1 0.342674 0.371941 0.243744
14252 1 0.35169 0.372633 0.257164
5821 1 0.259588 0.333739 0.327577
8203 1 0.349718 0.33381 0.216729
10989 1 0.350278 0.368298 0.21708
5028 1 0.313134 0.26964 0.255582
12832 1 0.269501 0.363782 0.269634
5289 1 0.331766 0.370597 0.253197
8453 1 0.297683 0.244906 0.276879
2443 1 0.324498 0.312997 0.265294
10746 1 0.307432 0.323126 0.283529
1978 1 0.350973 0.339406 0.202022
7668 1 0.272028 0.324784 0.284097
6099 1 0.270778 0.323696 0.320102
4178 1 0.466046 0.254611 0.210266
8917 1 0.427088 0.342013 0.179137
13627 1 0.410087 0.32554 0.198577
14614 1 0.45715 0.354854 0.164531
14170 1 0.458698 0.33289 0.191353
6269 1 0.443996 0.262898 0.190103
13862 1 0.452499 0.379969 0.172388
1660 1 0.46074 0.295222 0.209182
5474 1 0.447105 0.275924 0.205763
4382 1 0.390831 0.361832 0.207979
5834 1 0.382232 0.35564 0.235091
2096 1 0.453189 0.357832 0.182747
2804 1 0.451698 0.293725 0.181634
7342 1 0.388472 0.324146 0.185712
6607 1 0.377072 0.270853 0.233846
5327 1 0.409855 0.274945 0.222586
11271 1 0.460143 0.284345 0.195906
13883 1 0.394278 0.314056 0.195076
5050 1 0.415686 0.312787 0.203149
11821 1 0.430186 0.294957 0.255075
5145 1 0.403372 0.281835 0.208864
4117 1 0.402593 0.276129 0.247521
1861 1 0.40647 0.316718 0.228035
4760 1 0.400467 0.28229 0.268302
377 1 0.401404 0.308391 0.249395
14876 1 0.373599 0.341943 0.240493
5630 1 0.404571 0.289844 0.221602
361 1 0.397899 0.304771 0.220557
3439 1 0.379496 0.36239 0.22025
4010 1 0.381875 0.32992 0.2315
4023 1 0.379148 0.339832 0.209693
9202 1 0.419539 0.300232 0.195358
3400 1 0.419114 0.285132 0.212058
4963 1 0.379696 0.325534 0.216421
13269 1 0.442167 0.305837 0.185462
1635 1 0.468967 0.336591 0.172173
3896 1 0.412202 0.286725 0.241252
7907 1 0.403656 0.354265 0.194178
10712 1 0.451118 0.31013 0.172385
8409 1 0.430675 0.313547 0.196956
4722 1 0.444314 0.318993 0.22257
3130 1 0.406932 0.293358 0.275648
11538 1 0.372853 0.274649 0.220473
350 1 0.418652 0.29464 0.264724
529 1 0.387784 0.284232 0.242665
1948 1 0.470218 0.270479 0.210001
10138 1 0.416791 0.301813 0.250694
8216 1 0.437239 0.299887 0.284935
1136 1 0.457137 0.264988 0.215338
12723 1 0.454893 0.295189 0.25612
11969 1 0.40431 0.322886 0.214076
14345 1 0.388708 0.331312 0.248174
2935 1 0.39908 0.306249 0.274856
5391 1 0.41921 0.345762 0.199327
13450 1 0.437447 0.34004 0.189065
3317 1 0.431589 0.356436 0.202134
4598 1 0.409352 0.335891 0.211622
10068 1 0.431689 0.361855 0.18692
6585 1 0.427661 0.292193 0.23812
7871 1 0.389981 0.317484 0.249631
11087 1 0.37467 0.278491 0.248132
6570 1 0.426632 0.298174 0.209062
9097 1 0.408243 0.301958 0.234572
9140 1 0.394719 0.311098 0.236041
12145 1 0.376588 0.32317 0.247812
3436 1 0.401732 0.343172 0.180335
7058 1 0.381281 0.339409 0.179325
5648 1 0.420329 0.324491 0.210579
7889 1 0.361636 0.350582 0.221966
7690 1 0.364175 0.329738 0.254184
10854 1 0.434553 0.338457 0.206844
7613 1 0.412487 0.308029 0.266012
6071 1 0.365565 0.363634 0.213752
12395 1 0.43891 0.321973 0.208538
9414 1 0.392984 0.341702 0.258964
9514 1 0.412173 0.303883 0.216637
1958 1 0.447531 0.276674 0.225195
8603 1 0.420425 0.320661 0.228752
8813 1 0.429131 0.307189 0.245046
10644 1 0.427504 0.311919 0.217142
13291 1 0.432691 0.295881 0.222395
14786 1 0.440477 0.315524 0.25117
12737 1 0.405343 0.333222 0.255241
1755 1 0.417011 0.362321 0.198716
8329 1 0.467993 0.296527 0.242711
5089 1 0.46084 0.30751 0.280697
11187 1 0.407249 0.309208 0.288518
10255 1 0.397934 0.31615 0.262368
9699 1 0.42404 0.266816 0.268837
10065 1 0.402181 0.323375 0.245657
10007 1 0.429587 0.327155 0.263817
483 1 0.442089 0.381818 0.204918
5491 1 0.454524 0.336175 0.245574
11236 1 0.414454 0.32076 0.258011